LAMMPS (10 Apr 2024)
  using 1 OpenMP thread(s) per MPI task
  using LAMMPS_VERSION=stable_10Oct2024

step        temp        press       pe          ke          etotal      vol         dt          v_maxdisp   v_maxpe     v_maxke     v_maxcn
1           300.2       1.05        -1234.56    45.67       -1188.89    12345.0     0.002000    0.00001     0.001       0.0001      8.0
2           300.3       1.02        -1234.52    45.72       -1188.80    12345.1     0.002000    0.00012     0.003       0.0002      8.0
3           300.1       1.08        -1234.48    45.68       -1188.80    12345.2     0.002000    0.00023     0.002       0.0003      8.0
4           300.4       0.99        -1234.44    45.78       -1188.66    12345.3     0.002000    0.00034     0.004       0.0004      8.0
5           300.2       1.01        -1234.41    45.71       -1188.70    12345.4     0.002000    0.00045     0.005       0.0005      8.0
100         300.3       1.02        -1234.55    45.69       -1188.86    12345.0     0.002000    0.01234     0.120       0.0123      8.0
500         299.9       1.04        -1234.58    45.65       -1188.93    12344.9     0.002000    0.05678     0.345       0.0567      8.1
1000        300.1       0.98        -1234.62    45.72       -1188.90    12345.1     0.001999    0.12340     0.678       0.1234      8.2
5000        300.2       1.01        -1234.71    45.68       -1189.03    12345.0     0.001998    0.34567     1.234       0.3456      8.5
10000       300.0       1.03        -1234.85    45.75       -1189.10    12344.8     0.001997    0.67890     2.345       0.6789      9.0
50000       300.1       1.00        -1235.02    45.72       -1189.30    12345.0     0.001994    1.23456     4.234       1.2345      10.5
100000      299.9       1.02        -1235.15    45.68       -1189.47    12345.1     0.001991    1.53421     8.345       1.5342      11.5
500000      300.2       1.00        -1235.32    45.71       -1189.61    12345.0     0.002000    1.53421     45.234      8.3456      11.5

Loop time of 1234.56 on 1 procs for 500000 steps with 2048 atoms
Performance: 0.035 ns/day, 708.336 hours/ns, 405.01 timesteps/sec
100.0% CPU use with 1 MPI task
